Amber-MD cpptraj
Electrostatics apbs-pdb2pqr
GooFit GooFit
LCPQ quantum_package
MDAnalysis mdanalysis
Molcas OpenMolcas
N-BodyShop changa
OpenMx OpenMx
PCMSolver pcmsolver
Parsl parsl
ReactionMechanismGenerator RMG-Py
SCIInstitute SCIRun
Unidata MetPy
ValeevGroup mpqc
abinit abinit
choderalab openmmtools
choderalab yank
cooperative-computing-lab cctools
cyclus cyclus
dealii dealii
elastic elasticsearch
flame blis
galaxyproject galaxy
hubzero hubzero-cms
irods irods
keplerproject luafilesystem
lammps lammps
leeping forcebalance
m-a-d-n-e-s-s madness
materialsproject pymatgen
mdtraj mdtraj
mosdef-hub foyer
nds-org ndslabs
nwchemgit nwchem
open-mpi ompi
openforcefield openforcefield
openforcefield openforcefield
plumed plumed2
psi4 psi4
radical-cybertools radical.pilot
spotify luigi
trellis-ldp trellis
tripal tripal
yt-project yt
